
Predictions were generated on 19-Jul-2024 at 15:11:27 using OpenFAST, compiled as a 64-bit application using double precision at commit -128-NOTFOUND
 linked with  NWTC Subroutine Library; ElastoDyn; InflowWind; AeroDyn; ServoDyn; HydroDyn; MoorDyn (v2.0.0, 2023-09-18)

Description from the FAST input file: IEA 15 MW offshore reference model monopile configuration

	Time	Wind1VelX	Wind1VelY	Wind1VelZ	BldPitch1	BldPitch2	BldPitch3	Azimuth		RotSpeed	LSSGagPxa	GenSpeed	HSShftTq	LSSGagMya	LSSGagMza	LSShftFxs	LSShftFys	LSShftFzs	LSShftMxs	LSSTipMys	LSSTipMzs	NacYaw	YawBrTAxp	YawBrTAyp	YawBrTAzp	IPDefl1	OoPDefl1	PtfmHeave	PtfmPitch	PtfmRoll	PtfmSurge	PtfmSway	PtfmYaw	TwN1Fdx	TwN1Fdy	TwN2Fdx	TwN2Fdy	TwN3Fdx	TwN3Fdy	TwN4Fdx	TwN4Fdy	TwN5Fdx	TwN5Fdy	TwN6Fdx	TwN6Fdy	TwN7Fdx	TwN7Fdy	TwN8Fdx	TwN8Fdy	TwN9Fdx	TwN9Fdy	RtVAvgxh	RtAeroMxh	GenPwr	GenTq	Wave1Elev	FAIRTEN1	FAIRTEN2	FAIRTEN3	ANCHTEN1	ANCHTEN2	ANCHTEN3
(s)	(m/s)	(m/s)	(m/s)	(deg)	(deg)	(deg)	(deg)	(rpm)	(deg)	(rpm)	(kN-m)	(kN-m)	(kN-m)	(kN)	(kN)	(kN)	(kN-m)	(kN-m)	(kN-m)	(deg)	(m/s^2)	(m/s^2)	(m/s^2)	(m)	(m)	(m)	(deg)	(deg)	(m)	(m)	(deg)	(N/m)	(N/m)	(N/m)	(N/m)	(N/m)	(N/m)	(N/m)	(N/m)	(N/m)	(N/m)	(N/m)	(N/m)	(N/m)	(N/m)	(N/m)	(N/m)	(N/m)	(N/m)	(m/s)	(N-m)	(kW)	(kN-m)	(m)	(N)	(N)	(N)	(N)	(N)	(N)
    0.0000	 1.100E+01	-0.000E+00	 0.000E+00	 1.000E+00	 1.000E+00	 1.000E+00	 0.000E+00	 7.550E+00	 0.000E+00	 7.550E+00	 5.266E-10	-1.721E+02	 4.460E+03	 2.030E+03	 7.044E+01	-2.502E+03	 5.266E-10	-1.721E+02	 4.460E+03	 0.000E+00	 1.038E+00	-2.860E-01	 0.000E+00	 0.000E+00	 0.000E+00	 0.000E+00	 0.000E+00	 0.000E+00	 0.000E+00	 0.000E+00	 0.000E+00	 2.132E+02	 0.000E+00	 2.477E+02	 0.000E+00	 2.477E+02	 0.000E+00	 2.694E+02	 0.000E+00	 2.694E+02	 0.000E+00	 2.738E+02	 0.000E+00	 2.738E+02	 0.000E+00	 2.698E+02	 0.000E+00	 2.698E+02	 0.000E+00	 1.090E+01	 2.185E+07	 1.498E+04	 1.979E+04	-2.369E-01	 2.439E+06	 2.439E+06	 2.439E+06	 1.353E+06	 1.353E+06	 1.353E+06
    0.0100	 1.100E+01	-0.000E+00	 0.000E+00	 1.020E+00	 1.020E+00	 1.020E+00	 4.543E-01	 8.432E+00	 4.260E-01	 7.550E+00	 6.922E+03	-8.567E+01	 4.678E+03	 2.198E+03	 6.685E+01	-2.518E+03	 6.922E+03	-1.228E+02	 4.677E+03	 0.000E+00	 1.238E+00	-2.901E-01	-9.131E-07	 4.820E-03	 5.724E-04	 0.000E+00	 0.000E+00	 0.000E+00	 0.000E+00	 0.000E+00	 0.000E+00	 2.132E+02	 0.000E+00	 2.477E+02	 7.136E-04	 2.477E+02	 7.137E-04	 2.694E+02	 3.152E-03	 2.694E+02	 3.152E-03	 2.738E+02	 7.057E-03	 2.738E+02	 7.058E-03	 2.697E+02	 1.208E-02	 2.697E+02	 1.208E-02	 1.084E+01	 1.949E+07	 1.495E+04	 1.975E+04	-2.335E-01	 2.439E+06	 2.439E+06	 2.439E+06	 1.353E+06	 1.353E+06	 1.353E+06
    0.0200	 1.100E+01	-0.000E+00	 0.000E+00	 1.040E+00	 1.040E+00	 1.040E+00	 9.615E-01	 8.999E+00	 8.618E-01	 7.550E+00	 1.201E+04	-5.048E+01	 5.185E+03	 2.440E+03	 6.273E+01	-2.541E+03	 1.201E+04	-1.375E+02	 5.184E+03	 0.000E+00	 1.524E+00	-2.959E-01	-4.489E-06	 1.882E-02	 2.241E-03	 0.000E+00	 0.000E+00	 0.000E+00	 0.000E+00	 0.000E+00	 0.000E+00	 2.132E+02	 0.000E+00	 2.477E+02	 1.438E-03	 2.477E+02	 1.438E-03	 2.694E+02	 6.350E-03	 2.694E+02	 6.351E-03	 2.737E+02	 1.422E-02	 2.737E+02	 1.422E-02	 2.695E+02	 2.433E-02	 2.695E+02	 2.433E-02	 1.078E+01	 2.191E+07	 1.495E+04	 1.975E+04	-2.302E-01	 2.439E+06	 2.439E+06	 2.439E+06	 1.353E+06	 1.353E+06	 1.353E+06
    0.0300	 1.100E+01	-0.000E+00	 0.000E+00	 1.060E+00	 1.060E+00	 1.060E+00	 1.503E+00	 9.339E+00	 1.305E+00	 7.550E+00	 1.575E+04	-8.351E+01	 5.679E+03	 2.579E+03	 5.841E+01	-2.555E+03	 1.575E+04	-2.324E+02	 5.675E+03	 0.000E+00	 1.684E+00	-3.017E-01	-1.303E-05	 4.206E-02	 5.024E-03	 0.000E+00	 0.000E+00	 0.000E+00	 0.000E+00	 0.000E+00	 0.000E+00	 2.132E+02	 0.000E+00	 2.477E+02	 2.178E-03	 2.477E+02	 2.178E-03	 2.693E+02	 9.619E-03	 2.693E+02	 9.620E-03	 2.736E+02	 2.153E-02	 2.736E+02	 2.154E-02	 2.694E+02	 3.684E-02	 2.694E+02	 3.684E-02	 1.072E+01	 2.314E+07	 1.495E+04	 1.975E+04	-2.268E-01	 2.439E+06	 2.439E+06	 2.439E+06	 1.352E+06	 1.352E+06	 1.352E+06
    0.0400	 1.100E+01	-0.000E+00	 0.000E+00	 1.080E+00	 1.080E+00	 1.080E+00	 2.066E+00	 9.511E+00	 1.755E+00	 7.550E+00	 1.840E+04	-1.851E+02	 6.144E+03	 2.634E+03	 5.413E+01	-2.563E+03	 1.840E+04	-4.065E+02	 6.134E+03	 0.000E+00	 1.741E+00	-3.072E-01	-2.700E-05	 7.399E-02	 8.864E-03	 0.000E+00	 0.000E+00	 0.000E+00	 0.000E+00	 0.000E+00	 0.000E+00	 2.132E+02	 0.000E+00	 2.477E+02	 2.933E-03	 2.477E+02	 2.933E-03	 2.693E+02	 1.295E-02	 2.693E+02	 1.295E-02	 2.735E+02	 2.899E-02	 2.735E+02	 2.899E-02	 2.693E+02	 4.959E-02	 2.693E+02	 4.960E-02	 1.066E+01	 2.330E+07	 1.495E+04	 1.975E+04	-2.235E-01	 2.439E+06	 2.439E+06	 2.439E+06	 1.352E+06	 1.352E+06	 1.352E+06
    0.0500	 1.100E+01	-0.000E+00	 0.000E+00	 1.100E+00	 1.100E+00	 1.100E+00	 2.638E+00	 9.562E+00	 2.207E+00	 7.550E+00	 2.023E+04	-3.416E+02	 6.577E+03	 2.633E+03	 5.004E+01	-2.566E+03	 2.023E+04	-6.439E+02	 6.554E+03	 0.000E+00	 1.730E+00	-3.122E-01	-4.630E-05	 1.138E-01	 1.368E-02	 0.000E+00	 0.000E+00	 0.000E+00	 0.000E+00	 0.000E+00	 0.000E+00	 2.132E+02	 0.000E+00	 2.477E+02	 3.701E-03	 2.477E+02	 3.701E-03	 2.693E+02	 1.634E-02	 2.693E+02	 1.634E-02	 2.735E+02	 3.658E-02	 2.735E+02	 3.658E-02	 2.691E+02	 6.256E-02	 2.691E+02	 6.256E-02	 1.060E+01	 2.275E+07	 1.495E+04	 1.975E+04	-2.201E-01	 2.439E+06	 2.439E+06	 2.439E+06	 1.352E+06	 1.352E+06	 1.352E+06
    0.0600	 1.100E+01	-0.000E+00	 0.000E+00	 1.120E+00	 1.120E+00	 1.120E+00	 3.212E+00	 9.528E+00	 2.662E+00	 7.550E+00	 2.144E+04	-5.238E+02	 6.976E+03	 2.601E+03	 4.624E+01	-2.567E+03	 2.144E+04	-9.139E+02	 6.936E+03	 0.000E+00	 1.680E+00	-3.165E-01	-7.042E-05	 1.602E-01	 1.931E-02	 0.000E+00	 0.000E+00	 0.000E+00	 0.000E+00	 0.000E+00	 0.000E+00	 2.132E+02	 0.000E+00	 2.476E+02	 4.480E-03	 2.477E+02	 4.481E-03	 2.692E+02	 1.978E-02	 2.692E+02	 1.978E-02	 2.734E+02	 4.428E-02	 2.734E+02	 4.428E-02	 2.690E+02	 7.572E-02	 2.690E+02	 7.572E-02	 1.056E+01	 2.180E+07	 1.495E+04	 1.975E+04	-2.168E-01	 2.438E+06	 2.438E+06	 2.438E+06	 1.352E+06	 1.352E+06	 1.352E+06
    0.0700	 1.100E+01	-0.000E+00	 0.000E+00	 1.140E+00	 1.140E+00	 1.140E+00	 3.784E+00	 9.438E+00	 3.117E+00	 7.550E+00	 2.219E+04	-7.240E+02	 7.354E+03	 2.555E+03	 4.277E+01	-2.568E+03	 2.219E+04	-1.208E+03	 7.290E+03	 0.000E+00	 1.610E+00	-3.201E-01	-9.867E-05	 2.119E-01	 2.562E-02	 0.000E+00	 0.000E+00	 0.000E+00	 0.000E+00	 0.000E+00	 0.000E+00	 2.132E+02	 0.000E+00	 2.476E+02	 5.270E-03	 2.476E+02	 5.270E-03	 2.692E+02	 2.327E-02	 2.692E+02	 2.327E-02	 2.733E+02	 5.207E-02	 2.733E+02	 5.207E-02	 2.688E+02	 8.904E-02	 2.688E+02	 8.905E-02	 1.051E+01	 2.072E+07	 1.495E+04	 1.975E+04	-2.134E-01	 2.438E+06	 2.438E+06	 2.438E+06	 1.352E+06	 1.352E+06	 1.352E+06
    0.0800	 1.100E+01	-0.000E+00	 0.000E+00	 1.160E+00	 1.160E+00	 1.160E+00	 4.350E+00	 9.314E+00	 3.573E+00	 7.550E+00	 2.260E+04	-9.049E+02	 7.691E+03	 2.504E+03	 3.957E+01	-2.568E+03	 2.260E+04	-1.486E+03	 7.600E+03	 0.000E+00	 1.534E+00	-3.230E-01	-1.303E-04	 2.676E-01	 3.244E-02	 0.000E+00	 0.000E+00	 0.000E+00	 0.000E+00	 0.000E+00	 0.000E+00	 2.132E+02	 0.000E+00	 2.476E+02	 6.067E-03	 2.476E+02	 6.068E-03	 2.691E+02	 2.679E-02	 2.692E+02	 2.679E-02	 2.732E+02	 5.995E-02	 2.732E+02	 5.995E-02	 2.687E+02	 1.025E-01	 2.687E+02	 1.025E-01	 1.048E+01	 1.964E+07	 1.495E+04	 1.975E+04	-2.101E-01	 2.438E+06	 2.438E+06	 2.438E+06	 1.352E+06	 1.352E+06	 1.352E+06
    0.0900	 1.100E+01	-0.000E+00	 0.000E+00	 1.180E+00	 1.180E+00	 1.180E+00	 4.908E+00	 9.169E+00	 4.030E+00	 7.550E+00	 2.276E+04	-1.071E+03	 7.996E+03	 2.455E+03	 3.665E+01	-2.569E+03	 2.276E+04	-1.751E+03	 7.875E+03	 0.000E+00	 1.460E+00	-3.253E-01	-1.647E-04	 3.261E-01	 3.964E-02	 0.000E+00	 0.000E+00	 0.000E+00	 0.000E+00	 0.000E+00	 0.000E+00	 2.132E+02	 0.000E+00	 2.476E+02	 6.872E-03	 2.476E+02	 6.873E-03	 2.691E+02	 3.034E-02	 2.691E+02	 3.034E-02	 2.731E+02	 6.788E-02	 2.731E+02	 6.789E-02	 2.686E+02	 1.161E-01	 2.686E+02	 1.161E-01	 1.045E+01	 1.866E+07	 1.495E+04	 1.975E+04	-2.067E-01	 2.438E+06	 2.438E+06	 2.438E+06	 1.352E+06	 1.352E+06	 1.352E+06
    0.1000	 1.100E+01	-0.000E+00	 0.000E+00	 1.200E+00	 1.200E+00	 1.200E+00	 5.457E+00	 9.016E+00	 4.486E+00	 7.550E+00	 2.274E+04	-1.223E+03	 8.274E+03	 2.412E+03	 3.397E+01	-2.571E+03	 2.274E+04	-2.004E+03	 8.120E+03	 0.000E+00	 1.391E+00	-3.270E-01	-2.013E-04	 3.860E-01	 4.707E-02	 0.000E+00	 0.000E+00	 0.000E+00	 0.000E+00	 0.000E+00	 0.000E+00	 2.132E+02	 0.000E+00	 2.476E+02	 7.681E-03	 2.476E+02	 7.682E-03	 2.691E+02	 3.391E-02	 2.691E+02	 3.391E-02	 2.731E+02	 7.587E-02	 2.731E+02	 7.588E-02	 2.684E+02	 1.297E-01	 2.684E+02	 1.297E-01	 1.043E+01	 1.780E+07	 1.495E+04	 1.975E+04	-2.034E-01	 2.438E+06	 2.438E+06	 2.438E+06	 1.351E+06	 1.351E+06	 1.351E+06
    0.1100	 1.100E+01	-0.000E+00	 0.000E+00	 1.220E+00	 1.220E+00	 1.220E+00	 6.018E+00	 9.174E+00	 4.965E+00	 7.861E+00	 2.261E+04	-1.379E+03	 8.714E+03	 2.488E+03	 3.010E+01	-2.584E+03	 2.261E+04	-2.285E+03	 8.521E+03	 0.000E+00	 1.462E+00	-3.303E-01	-2.334E-04	 4.464E-01	 5.459E-02	 0.000E+00	 0.000E+00	 0.000E+00	 0.000E+00	 0.000E+00	 0.000E+00	 2.132E+02	 0.000E+00	 2.476E+02	 8.498E-03	 2.476E+02	 8.500E-03	 2.691E+02	 3.752E-02	 2.691E+02	 3.752E-02	 2.730E+02	 8.394E-02	 2.730E+02	 8.394E-02	 2.683E+02	 1.435E-01	 2.683E+02	 1.435E-01	 1.041E+01	 1.828E+07	 1.557E+04	 1.975E+04	-2.000E-01	 2.438E+06	 2.438E+06	 2.438E+06	 1.351E+06	 1.351E+06	 1.351E+06
    0.1200	 1.100E+01	-0.000E+00	 0.000E+00	 1.240E+00	 1.240E+00	 1.240E+00	 6.577E+00	 9.172E+00	 5.449E+00	 8.003E+00	 2.244E+04	-1.555E+03	 9.044E+03	 2.502E+03	 2.708E+01	-2.592E+03	 2.244E+04	-2.581E+03	 8.807E+03	 0.000E+00	 1.459E+00	-3.321E-01	-2.769E-04	 5.067E-01	 6.215E-02	 0.000E+00	 0.000E+00	 0.000E+00	 0.000E+00	 0.000E+00	 0.000E+00	 2.132E+02	 0.000E+00	 2.476E+02	 9.322E-03	 2.476E+02	 9.323E-03	 2.690E+02	 4.115E-02	 2.690E+02	 4.115E-02	 2.729E+02	 9.206E-02	 2.729E+02	 9.206E-02	 2.682E+02	 1.573E-01	 2.682E+02	 1.573E-01	 1.039E+01	 1.811E+07	 1.585E+04	 1.975E+04	-1.967E-01	 2.438E+06	 2.438E+06	 2.438E+06	 1.351E+06	 1.351E+06	 1.351E+06
    0.1300	 1.100E+01	-0.000E+00	 0.000E+00	 1.260E+00	 1.260E+00	 1.260E+00	 7.135E+00	 9.165E+00	 5.941E+00	 8.134E+00	 2.222E+04	-1.738E+03	 9.355E+03	 2.516E+03	 2.421E+01	-2.601E+03	 2.222E+04	-2.886E+03	 9.067E+03	 0.000E+00	 1.454E+00	-3.334E-01	-3.225E-04	 5.664E-01	 6.966E-02	 0.000E+00	 0.000E+00	 0.000E+00	 0.000E+00	 0.000E+00	 0.000E+00	 2.132E+02	 0.000E+00	 2.476E+02	 1.015E-02	 2.476E+02	 1.015E-02	 2.690E+02	 4.480E-02	 2.690E+02	 4.480E-02	 2.728E+02	 1.002E-01	 2.729E+02	 1.002E-01	 2.681E+02	 1.713E-01	 2.681E+02	 1.713E-01	 1.038E+01	 1.795E+07	 1.611E+04	 1.975E+04	-1.933E-01	 2.438E+06	 2.438E+06	 2.438E+06	 1.351E+06	 1.351E+06	 1.351E+06
    0.1400	 1.100E+01	-0.000E+00	 0.000E+00	 1.280E+00	 1.280E+00	 1.280E+00	 7.691E+00	 9.154E+00	 6.439E+00	 8.251E+00	 2.197E+04	-1.924E+03	 9.649E+03	 2.528E+03	 2.150E+01	-2.610E+03	 2.197E+04	-3.198E+03	 9.305E+03	 0.000E+00	 1.446E+00	-3.342E-01	-3.716E-04	 6.249E-01	 7.709E-02	 0.000E+00	 0.000E+00	 0.000E+00	 0.000E+00	 0.000E+00	 0.000E+00	 2.132E+02	 0.000E+00	 2.476E+02	 1.098E-02	 2.476E+02	 1.098E-02	 2.690E+02	 4.846E-02	 2.690E+02	 4.846E-02	 2.728E+02	 1.084E-01	 2.728E+02	 1.084E-01	 2.680E+02	 1.852E-01	 2.680E+02	 1.852E-01	 1.037E+01	 1.778E+07	 1.634E+04	 1.975E+04	-1.900E-01	 2.438E+06	 2.438E+06	 2.438E+06	 1.351E+06	 1.351E+06	 1.351E+06
    0.1500	 1.100E+01	-0.000E+00	 0.000E+00	 1.300E+00	 1.300E+00	 1.300E+00	 8.246E+00	 9.138E+00	 6.944E+00	 8.353E+00	 2.171E+04	-2.111E+03	 9.929E+03	 2.541E+03	 1.897E+01	-2.619E+03	 2.171E+04	-3.514E+03	 9.524E+03	 0.000E+00	 1.437E+00	-3.345E-01	-4.241E-04	 6.815E-01	 8.431E-02	 0.000E+00	 0.000E+00	 0.000E+00	 0.000E+00	 0.000E+00	 0.000E+00	 2.132E+02	 0.000E+00	 2.476E+02	 1.181E-02	 2.476E+02	 1.181E-02	 2.689E+02	 5.212E-02	 2.689E+02	 5.212E-02	 2.727E+02	 1.166E-01	 2.727E+02	 1.166E-01	 2.678E+02	 1.992E-01	 2.678E+02	 1.992E-01	 1.036E+01	 1.763E+07	 1.654E+04	 1.975E+04	-1.866E-01	 2.438E+06	 2.438E+06	 2.438E+06	 1.351E+06	 1.351E+06	 1.351E+06
    0.1600	 1.100E+01	-0.000E+00	 0.000E+00	 1.320E+00	 1.320E+00	 1.320E+00	 8.799E+00	 9.120E+00	 7.453E+00	 8.441E+00	 2.145E+04	-2.299E+03	 1.019E+04	 2.553E+03	 1.660E+01	-2.628E+03	 2.145E+04	-3.831E+03	 9.723E+03	 0.000E+00	 1.426E+00	-3.343E-01	-4.799E-04	 7.354E-01	 9.124E-02	 0.000E+00	 0.000E+00	 0.000E+00	 0.000E+00	 0.000E+00	 0.000E+00	 2.132E+02	 0.000E+00	 2.476E+02	 1.264E-02	 2.476E+02	 1.264E-02	 2.689E+02	 5.578E-02	 2.689E+02	 5.579E-02	 2.726E+02	 1.248E-01	 2.726E+02	 1.248E-01	 2.677E+02	 2.131E-01	 2.677E+02	 2.131E-01	 1.036E+01	 1.749E+07	 1.672E+04	 1.975E+04	-1.833E-01	 2.437E+06	 2.438E+06	 2.438E+06	 1.351E+06	 1.351E+06	 1.351E+06
    0.1700	 1.100E+01	-0.000E+00	 0.000E+00	 1.340E+00	 1.340E+00	 1.340E+00	 9.338E+00	 8.923E+00	 7.954E+00	 8.340E+00	 2.120E+04	-2.436E+03	 1.029E+04	 2.504E+03	 1.548E+01	-2.632E+03	 2.120E+04	-4.073E+03	 9.759E+03	 0.000E+00	 1.343E+00	-3.320E-01	-5.471E-04	 7.861E-01	 9.781E-02	 0.000E+00	 0.000E+00	 0.000E+00	 0.000E+00	 0.000E+00	 0.000E+00	 2.132E+02	 0.000E+00	 2.476E+02	 1.346E-02	 2.476E+02	 1.347E-02	 2.689E+02	 5.942E-02	 2.689E+02	 5.943E-02	 2.726E+02	 1.329E-01	 2.726E+02	 1.329E-01	 2.676E+02	 2.270E-01	 2.676E+02	 2.270E-01	 1.036E+01	 1.672E+07	 1.652E+04	 1.975E+04	-1.799E-01	 2.437E+06	 2.437E+06	 2.437E+06	 1.351E+06	 1.351E+06	 1.351E+06
    0.1800	 1.100E+01	-0.000E+00	 0.000E+00	 1.360E+00	 1.360E+00	 1.360E+00	 9.894E+00	 9.136E+00	 8.477E+00	 8.640E+00	 2.094E+04	-2.679E+03	 1.075E+04	 2.604E+03	 1.201E+01	-2.650E+03	 2.094E+04	-4.487E+03	 1.013E+04	 0.000E+00	 1.433E+00	-3.331E-01	-5.907E-04	 8.326E-01	 1.039E-01	 0.000E+00	 0.000E+00	 0.000E+00	 0.000E+00	 0.000E+00	 0.000E+00	 2.132E+02	 0.000E+00	 2.476E+02	 1.429E-02	 2.476E+02	 1.429E-02	 2.688E+02	 6.307E-02	 2.688E+02	 6.308E-02	 2.725E+02	 1.410E-01	 2.725E+02	 1.410E-01	 2.675E+02	 2.409E-01	 2.675E+02	 2.409E-01	 1.036E+01	 1.756E+07	 1.711E+04	 1.975E+04	-1.766E-01	 2.437E+06	 2.437E+06	 2.437E+06	 1.350E+06	 1.350E+06	 1.350E+06
    0.1900	 1.100E+01	-0.000E+00	 0.000E+00	 1.380E+00	 1.380E+00	 1.380E+00	 1.043E+01	 8.914E+00	 8.985E+00	 8.490E+00	 2.074E+04	-2.797E+03	 1.078E+04	 2.547E+03	 1.148E+01	-2.653E+03	 2.074E+04	-4.701E+03	 1.009E+04	 0.000E+00	 1.338E+00	-3.295E-01	-6.722E-04	 8.749E-01	 1.095E-01	 0.000E+00	 0.000E+00	 0.000E+00	 0.000E+00	 0.000E+00	 0.000E+00	 2.132E+02	 0.000E+00	 2.476E+02	 1.511E-02	 2.476E+02	 1.511E-02	 2.688E+02	 6.669E-02	 2.688E+02	 6.669E-02	 2.724E+02	 1.491E-01	 2.724E+02	 1.491E-01	 2.674E+02	 2.547E-01	 2.674E+02	 2.547E-01	 1.037E+01	 1.673E+07	 1.682E+04	 1.976E+04	-1.733E-01	 2.437E+06	 2.437E+06	 2.437E+06	 1.350E+06	 1.350E+06	 1.350E+06
    0.2000	 1.100E+01	-0.000E+00	 0.000E+00	 1.400E+00	 1.400E+00	 1.400E+00	 1.097E+01	 8.949E+00	 9.503E+00	 8.592E+00	 2.052E+04	-2.987E+03	 1.105E+04	 2.583E+03	 9.448E+00	-2.666E+03	 2.052E+04	-5.034E+03	 1.028E+04	 0.000E+00	 1.352E+00	-3.280E-01	-7.302E-04	 9.119E-01	 1.144E-01	 0.000E+00	 0.000E+00	 0.000E+00	 0.000E+00	 0.000E+00	 0.000E+00	 2.132E+02	 0.000E+00	 2.475E+02	 1.593E-02	 2.475E+02	 1.593E-02	 2.688E+02	 7.029E-02	 2.688E+02	 7.029E-02	 2.724E+02	 1.572E-01	 2.724E+02	 1.572E-01	 2.672E+02	 2.684E-01	 2.672E+02	 2.684E-01	 1.038E+01	 1.694E+07	 1.702E+04	 1.976E+04	-1.699E-01	 2.437E+06	 2.437E+06	 2.437E+06	 1.350E+06	 1.350E+06	 1.350E+06
    0.2100	 1.100E+01	-0.000E+00	 0.000E+00	 1.420E+00	 1.420E+00	 1.420E+00	 1.151E+01	 8.920E+00	 1.002E+01	 8.620E+00	 2.034E+04	-3.153E+03	 1.124E+04	 2.597E+03	 8.046E+00	-2.677E+03	 2.034E+04	-5.331E+03	 1.038E+04	 0.000E+00	 1.338E+00	-3.253E-01	-8.006E-04	 9.437E-01	 1.188E-01	 0.000E+00	 0.000E+00	 0.000E+00	 0.000E+00	 0.000E+00	 0.000E+00	 2.132E+02	 0.000E+00	 2.475E+02	 1.674E-02	 2.475E+02	 1.674E-02	 2.687E+02	 7.386E-02	 2.687E+02	 7.387E-02	 2.723E+02	 1.651E-01	 2.723E+02	 1.651E-01	 2.671E+02	 2.820E-01	 2.671E+02	 2.820E-01	 1.039E+01	 1.692E+07	 1.708E+04	 1.976E+04	-1.666E-01	 2.437E+06	 2.437E+06	 2.437E+06	 1.350E+06	 1.350E+06	 1.350E+06
    0.2200	 1.100E+01	-0.000E+00	 0.000E+00	 1.440E+00	 1.440E+00	 1.440E+00	 1.204E+01	 8.893E+00	 1.054E+01	 8.641E+00	 2.018E+04	-3.313E+03	 1.141E+04	 2.610E+03	 6.833E+00	-2.688E+03	 2.018E+04	-5.620E+03	 1.046E+04	 0.000E+00	 1.322E+00	-3.221E-01	-8.725E-04	 9.696E-01	 1.223E-01	 0.000E+00	 0.000E+00	 0.000E+00	 0.000E+00	 0.000E+00	 0.000E+00	 2.132E+02	 0.000E+00	 2.475E+02	 1.754E-02	 2.475E+02	 1.754E-02	 2.687E+02	 7.740E-02	 2.687E+02	 7.740E-02	 2.722E+02	 1.730E-01	 2.722E+02	 1.730E-01	 2.670E+02	 2.955E-01	 2.670E+02	 2.955E-01	 1.040E+01	 1.692E+07	 1.712E+04	 1.976E+04	-1.632E-01	 2.437E+06	 2.437E+06	 2.437E+06	 1.350E+06	 1.350E+06	 1.350E+06
    0.2300	 1.100E+01	-0.000E+00	 0.000E+00	 1.460E+00	 1.460E+00	 1.460E+00	 1.258E+01	 8.864E+00	 1.106E+01	 8.654E+00	 2.004E+04	-3.466E+03	 1.156E+04	 2.622E+03	 5.829E+00	-2.699E+03	 2.004E+04	-5.900E+03	 1.053E+04	 0.000E+00	 1.305E+00	-3.184E-01	-9.473E-04	 9.895E-01	 1.252E-01	 0.000E+00	 0.000E+00	 0.000E+00	 0.000E+00	 0.000E+00	 0.000E+00	 2.132E+02	 0.000E+00	 2.475E+02	 1.833E-02	 2.475E+02	 1.834E-02	 2.687E+02	 8.090E-02	 2.687E+02	 8.090E-02	 2.722E+02	 1.808E-01	 2.722E+02	 1.808E-01	 2.669E+02	 3.088E-01	 2.669E+02	 3.088E-01	 1.042E+01	 1.693E+07	 1.715E+04	 1.977E+04	-1.599E-01	 2.437E+06	 2.437E+06	 2.437E+06	 1.350E+06	 1.350E+06	 1.350E+06
    0.2400	 1.100E+01	-0.000E+00	 0.000E+00	 1.480E+00	 1.480E+00	 1.480E+00	 1.311E+01	 8.835E+00	 1.158E+01	 8.660E+00	 1.991E+04	-3.609E+03	 1.170E+04	 2.633E+03	 5.035E+00	-2.709E+03	 1.991E+04	-6.168E+03	 1.057E+04	 0.000E+00	 1.285E+00	-3.141E-01	-1.025E-03	 1.003E+00	 1.273E-01	 0.000E+00	 0.000E+00	 0.000E+00	 0.000E+00	 0.000E+00	 0.000E+00	 2.132E+02	 0.000E+00	 2.475E+02	 1.912E-02	 2.475E+02	 1.912E-02	 2.687E+02	 8.435E-02	 2.687E+02	 8.436E-02	 2.721E+02	 1.885E-01	 2.721E+02	 1.886E-01	 2.668E+02	 3.219E-01	 2.668E+02	 3.219E-01	 1.043E+01	 1.695E+07	 1.717E+04	 1.977E+04	-1.565E-01	 2.437E+06	 2.437E+06	 2.437E+06	 1.350E+06	 1.350E+06	 1.350E+06
    0.2500	 1.100E+01	-0.000E+00	 0.000E+00	 1.500E+00	 1.500E+00	 1.500E+00	 1.364E+01	 8.806E+00	 1.210E+01	 8.661E+00	 1.981E+04	-3.745E+03	 1.181E+04	 2.643E+03	 4.460E+00	-2.720E+03	 1.981E+04	-6.425E+03	 1.060E+04	 0.000E+00	 1.264E+00	-3.094E-01	-1.104E-03	 1.010E+00	 1.286E-01	 0.000E+00	 0.000E+00	 0.000E+00	 0.000E+00	 0.000E+00	 0.000E+00	 2.132E+02	 0.000E+00	 2.475E+02	 1.989E-02	 2.475E+02	 1.989E-02	 2.686E+02	 8.776E-02	 2.686E+02	 8.776E-02	 2.720E+02	 1.961E-01	 2.720E+02	 1.962E-01	 2.667E+02	 3.348E-01	 2.667E+02	 3.349E-01	 1.045E+01	 1.699E+07	 1.717E+04	 1.978E+04	-1.532E-01	 2.437E+06	 2.437E+06	 2.437E+06	 1.350E+06	 1.350E+06	 1.350E+06
    0.2600	 1.100E+01	-0.000E+00	 0.000E+00	 1.520E+00	 1.520E+00	 1.520E+00	 1.417E+01	 8.778E+00	 1.262E+01	 8.657E+00	 1.972E+04	-3.871E+03	 1.191E+04	 2.652E+03	 4.106E+00	-2.731E+03	 1.972E+04	-6.670E+03	 1.060E+04	 0.000E+00	 1.240E+00	-3.041E-01	-1.186E-03	 1.011E+00	 1.290E-01	 0.000E+00	 0.000E+00	 0.000E+00	 0.000E+00	 0.000E+00	 0.000E+00	 2.132E+02	 0.000E+00	 2.475E+02	 2.065E-02	 2.475E+02	 2.065E-02	 2.686E+02	 9.111E-02	 2.686E+02	 9.111E-02	 2.720E+02	 2.036E-01	 2.720E+02	 2.036E-01	 2.666E+02	 3.476E-01	 2.666E+02	 3.476E-01	 1.046E+01	 1.704E+07	 1.717E+04	 1.978E+04	-1.494E-01	 2.437E+06	 2.437E+06	 2.437E+06	 1.350E+06	 1.350E+06	 1.350E+06
    0.2700	 1.100E+01	-0.000E+00	 0.000E+00	 1.540E+00	 1.540E+00	 1.540E+00	 1.469E+01	 8.750E+00	 1.314E+01	 8.649E+00	 1.965E+04	-3.990E+03	 1.199E+04	 2.659E+03	 3.985E+00	-2.742E+03	 1.965E+04	-6.901E+03	 1.059E+04	 0.000E+00	 1.215E+00	-2.982E-01	-1.270E-03	 1.005E+00	 1.286E-01	 0.000E+00	 0.000E+00	 0.000E+00	 0.000E+00	 0.000E+00	 0.000E+00	 2.132E+02	 0.000E+00	 2.475E+02	 2.140E-02	 2.475E+02	 2.140E-02	 2.686E+02	 9.439E-02	 2.686E+02	 9.440E-02	 2.719E+02	 2.110E-01	 2.719E+02	 2.110E-01	 2.665E+02	 3.601E-01	 2.665E+02	 3.601E-01	 1.048E+01	 1.709E+07	 1.716E+04	 1.979E+04	-1.457E-01	 2.436E+06	 2.436E+06	 2.436E+06	 1.349E+06	 1.349E+06	 1.349E+06
    0.2800	 1.100E+01	-0.000E+00	 0.000E+00	 1.560E+00	 1.560E+00	 1.560E+00	 1.521E+01	 8.723E+00	 1.366E+01	 8.638E+00	 1.960E+04	-4.096E+03	 1.205E+04	 2.665E+03	 4.070E+00	-2.752E+03	 1.960E+04	-7.116E+03	 1.056E+04	 0.000E+00	 1.187E+00	-2.918E-01	-1.357E-03	 9.925E-01	 1.274E-01	 0.000E+00	 0.000E+00	 0.000E+00	 0.000E+00	 0.000E+00	 0.000E+00	 2.132E+02	 0.000E+00	 2.475E+02	 2.213E-02	 2.475E+02	 2.213E-02	 2.685E+02	 9.761E-02	 2.685E+02	 9.762E-02	 2.719E+02	 2.181E-01	 2.719E+02	 2.182E-01	 2.664E+02	 3.723E-01	 2.664E+02	 3.723E-01	 1.050E+01	 1.716E+07	 1.714E+04	 1.979E+04	-1.420E-01	 2.436E+06	 2.436E+06	 2.436E+06	 1.349E+06	 1.349E+06	 1.349E+06
    0.2900	 1.100E+01	-0.000E+00	 0.000E+00	 1.580E+00	 1.580E+00	 1.580E+00	 1.574E+01	 8.697E+00	 1.417E+01	 8.626E+00	 1.956E+04	-4.190E+03	 1.209E+04	 2.670E+03	 4.377E+00	-2.762E+03	 1.956E+04	-7.313E+03	 1.050E+04	 0.000E+00	 1.157E+00	-2.849E-01	-1.444E-03	 9.738E-01	 1.253E-01	 0.000E+00	 0.000E+00	 0.000E+00	 0.000E+00	 0.000E+00	 0.000E+00	 2.132E+02	 0.000E+00	 2.475E+02	 2.284E-02	 2.475E+02	 2.285E-02	 2.685E+02	 1.008E-01	 2.685E+02	 1.008E-01	 2.718E+02	 2.252E-01	 2.718E+02	 2.252E-01	 2.663E+02	 3.842E-01	 2.663E+02	 3.843E-01	 1.051E+01	 1.724E+07	 1.711E+04	 1.979E+04	-1.383E-01	 2.436E+06	 2.436E+06	 2.436E+06	 1.349E+06	 1.349E+06	 1.349E+06
    0.3000	 1.100E+01	-0.000E+00	 0.000E+00	 1.600E+00	 1.600E+00	 1.600E+00	 1.626E+01	 8.672E+00	 1.469E+01	 8.612E+00	 1.953E+04	-4.272E+03	 1.211E+04	 2.674E+03	 4.914E+00	-2.772E+03	 1.953E+04	-7.492E+03	 1.043E+04	 0.000E+00	 1.125E+00	-2.774E-01	-1.534E-03	 9.488E-01	 1.224E-01	 0.000E+00	 0.000E+00	 0.000E+00	 0.000E+00	 0.000E+00	 0.000E+00	 2.132E+02	 0.000E+00	 2.475E+02	 2.354E-02	 2.475E+02	 2.354E-02	 2.685E+02	 1.038E-01	 2.685E+02	 1.038E-01	 2.717E+02	 2.320E-01	 2.717E+02	 2.320E-01	 2.662E+02	 3.959E-01	 2.662E+02	 3.959E-01	 1.053E+01	 1.732E+07	 1.709E+04	 1.979E+04	-1.346E-01	 2.436E+06	 2.436E+06	 2.436E+06	 1.349E+06	 1.349E+06	 1.349E+06
    0.3100	 1.100E+01	-0.000E+00	 0.000E+00	 1.620E+00	 1.620E+00	 1.620E+00	 1.678E+01	 8.649E+00	 1.520E+01	 8.597E+00	 1.951E+04	-4.342E+03	 1.211E+04	 2.676E+03	 5.682E+00	-2.782E+03	 1.951E+04	-7.651E+03	 1.034E+04	 0.000E+00	 1.091E+00	-2.694E-01	-1.625E-03	 9.179E-01	 1.188E-01	 0.000E+00	 0.000E+00	 0.000E+00	 0.000E+00	 0.000E+00	 0.000E+00	 2.132E+02	 0.000E+00	 2.475E+02	 2.421E-02	 2.475E+02	 2.422E-02	 2.685E+02	 1.068E-01	 2.685E+02	 1.068E-01	 2.717E+02	 2.387E-01	 2.717E+02	 2.387E-01	 2.661E+02	 4.072E-01	 2.661E+02	 4.072E-01	 1.055E+01	 1.741E+07	 1.706E+04	 1.979E+04	-1.309E-01	 2.436E+06	 2.436E+06	 2.436E+06	 1.349E+06	 1.349E+06	 1.349E+06
    0.3200	 1.100E+01	-0.000E+00	 0.000E+00	 1.640E+00	 1.640E+00	 1.640E+00	 1.729E+01	 8.628E+00	 1.572E+01	 8.581E+00	 1.950E+04	-4.399E+03	 1.208E+04	 2.676E+03	 6.679E+00	-2.792E+03	 1.950E+04	-7.790E+03	 1.022E+04	 0.000E+00	 1.055E+00	-2.609E-01	-1.717E-03	 8.814E-01	 1.144E-01	 0.000E+00	 0.000E+00	 0.000E+00	 0.000E+00	 0.000E+00	 0.000E+00	 2.132E+02	 0.000E+00	 2.475E+02	 2.487E-02	 2.475E+02	 2.488E-02	 2.684E+02	 1.097E-01	 2.684E+02	 1.097E-01	 2.716E+02	 2.451E-01	 2.716E+02	 2.451E-01	 2.660E+02	 4.182E-01	 2.660E+02	 4.182E-01	 1.056E+01	 1.750E+07	 1.703E+04	 1.979E+04	-1.272E-01	 2.436E+06	 2.436E+06	 2.436E+06	 1.349E+06	 1.349E+06	 1.349E+06
    0.3300	 1.100E+01	-0.000E+00	 0.000E+00	 1.660E+00	 1.660E+00	 1.660E+00	 1.781E+01	 8.608E+00	 1.623E+01	 8.566E+00	 1.950E+04	-4.447E+03	 1.202E+04	 2.675E+03	 7.913E+00	-2.801E+03	 1.950E+04	-7.912E+03	 1.009E+04	 0.000E+00	 1.017E+00	-2.518E-01	-1.810E-03	 8.397E-01	 1.092E-01	 0.000E+00	 0.000E+00	 0.000E+00	 0.000E+00	 0.000E+00	 0.000E+00	 2.132E+02	 0.000E+00	 2.475E+02	 2.551E-02	 2.475E+02	 2.551E-02	 2.684E+02	 1.125E-01	 2.684E+02	 1.125E-01	 2.716E+02	 2.513E-01	 2.716E+02	 2.513E-01	 2.659E+02	 4.288E-01	 2.659E+02	 4.288E-01	 1.057E+01	 1.759E+07	 1.700E+04	 1.979E+04	-1.235E-01	 2.436E+06	 2.436E+06	 2.436E+06	 1.349E+06	 1.349E+06	 1.349E+06
    0.3400	 1.100E+01	-0.000E+00	 0.000E+00	 1.680E+00	 1.680E+00	 1.680E+00	 1.832E+01	 8.591E+00	 1.675E+01	 8.551E+00	 1.951E+04	-4.481E+03	 1.195E+04	 2.673E+03	 9.369E+00	-2.810E+03	 1.951E+04	-8.010E+03	 9.934E+03	 0.000E+00	 9.768E-01	-2.423E-01	-1.903E-03	 7.931E-01	 1.035E-01	 0.000E+00	 0.000E+00	 0.000E+00	 0.000E+00	 0.000E+00	 0.000E+00	 2.132E+02	 0.000E+00	 2.475E+02	 2.612E-02	 2.475E+02	 2.612E-02	 2.684E+02	 1.152E-01	 2.684E+02	 1.152E-01	 2.715E+02	 2.573E-01	 2.715E+02	 2.574E-01	 2.658E+02	 4.390E-01	 2.658E+02	 4.390E-01	 1.058E+01	 1.768E+07	 1.697E+04	 1.979E+04	-1.197E-01	 2.436E+06	 2.436E+06	 2.436E+06	 1.349E+06	 1.349E+06	 1.349E+06
    0.3500	 1.100E+01	-0.000E+00	 0.000E+00	 1.700E+00	 1.700E+00	 1.700E+00	 1.884E+01	 8.575E+00	 1.726E+01	 8.537E+00	 1.953E+04	-4.500E+03	 1.185E+04	 2.669E+03	 1.103E+01	-2.818E+03	 1.953E+04	-8.084E+03	 9.760E+03	 0.000E+00	 9.350E-01	-2.323E-01	-1.997E-03	 7.422E-01	 9.709E-02	 0.000E+00	 0.000E+00	 0.000E+00	 0.000E+00	 0.000E+00	 0.000E+00	 2.132E+02	 0.000E+00	 2.475E+02	 2.670E-02	 2.475E+02	 2.671E-02	 2.684E+02	 1.178E-01	 2.684E+02	 1.178E-01	 2.715E+02	 2.631E-01	 2.715E+02	 2.631E-01	 2.657E+02	 4.488E-01	 2.657E+02	 4.488E-01	 1.059E+01	 1.777E+07	 1.694E+04	 1.979E+04	-1.160E-01	 2.436E+06	 2.436E+06	 2.436E+06	 1.349E+06	 1.349E+06	 1.349E+06
    0.3600	 1.100E+01	-0.000E+00	 0.000E+00	 1.720E+00	 1.720E+00	 1.720E+00	 1.935E+01	 8.563E+00	 1.777E+01	 8.525E+00	 1.955E+04	-4.502E+03	 1.172E+04	 2.664E+03	 1.289E+01	-2.826E+03	 1.955E+04	-8.132E+03	 9.569E+03	 0.000E+00	 8.916E-01	-2.218E-01	-2.091E-03	 6.875E-01	 9.017E-02	 0.000E+00	 0.000E+00	 0.000E+00	 0.000E+00	 0.000E+00	 0.000E+00	 2.132E+02	 0.000E+00	 2.475E+02	 2.727E-02	 2.475E+02	 2.727E-02	 2.684E+02	 1.203E-01	 2.684E+02	 1.203E-01	 2.714E+02	 2.686E-01	 2.714E+02	 2.686E-01	 2.657E+02	 4.582E-01	 2.657E+02	 4.582E-01	 1.060E+01	 1.786E+07	 1.691E+04	 1.979E+04	-1.123E-01	 2.436E+06	 2.436E+06	 2.436E+06	 1.349E+06	 1.349E+06	 1.349E+06
    0.3700	 1.100E+01	-0.000E+00	 0.000E+00	 1.740E+00	 1.740E+00	 1.740E+00	 1.986E+01	 8.552E+00	 1.828E+01	 8.514E+00	 1.958E+04	-4.495E+03	 1.157E+04	 2.658E+03	 1.496E+01	-2.834E+03	 1.958E+04	-8.161E+03	 9.358E+03	 0.000E+00	 8.467E-01	-2.109E-01	-2.184E-03	 6.295E-01	 8.278E-02	 0.000E+00	 0.000E+00	 0.000E+00	 0.000E+00	 0.000E+00	 0.000E+00	 2.132E+02	 0.000E+00	 2.474E+02	 2.780E-02	 2.475E+02	 2.781E-02	 2.683E+02	 1.226E-01	 2.683E+02	 1.226E-01	 2.714E+02	 2.739E-01	 2.714E+02	 2.739E-01	 2.656E+02	 4.671E-01	 2.656E+02	 4.672E-01	 1.060E+01	 1.794E+07	 1.689E+04	 1.979E+04	-1.086E-01	 2.436E+06	 2.436E+06	 2.436E+06	 1.349E+06	 1.349E+06	 1.349E+06
    0.3800	 1.100E+01	-0.000E+00	 0.000E+00	 1.760E+00	 1.760E+00	 1.760E+00	 2.038E+01	 8.544E+00	 1.879E+01	 8.505E+00	 1.962E+04	-4.479E+03	 1.140E+04	 2.651E+03	 1.724E+01	-2.841E+03	 1.962E+04	-8.168E+03	 9.128E+03	 0.000E+00	 8.004E-01	-1.995E-01	-2.277E-03	 5.687E-01	 7.500E-02	 0.000E+00	 0.000E+00	 0.000E+00	 0.000E+00	 0.000E+00	 0.000E+00	 2.132E+02	 0.000E+00	 2.474E+02	 2.831E-02	 2.474E+02	 2.832E-02	 2.683E+02	 1.249E-01	 2.683E+02	 1.249E-01	 2.714E+02	 2.789E-01	 2.714E+02	 2.789E-01	 2.655E+02	 4.756E-01	 2.655E+02	 4.756E-01	 1.060E+01	 1.801E+07	 1.687E+04	 1.979E+04	-1.049E-01	 2.436E+06	 2.436E+06	 2.436E+06	 1.348E+06	 1.349E+06	 1.349E+06
    0.3900	 1.100E+01	-0.000E+00	 0.000E+00	 1.780E+00	 1.780E+00	 1.780E+00	 2.089E+01	 8.539E+00	 1.930E+01	 8.498E+00	 1.966E+04	-4.447E+03	 1.120E+04	 2.643E+03	 1.968E+01	-2.847E+03	 1.966E+04	-8.150E+03	 8.883E+03	 0.000E+00	 7.531E-01	-1.878E-01	-2.370E-03	 5.059E-01	 6.689E-02	 0.000E+00	 0.000E+00	 0.000E+00	 0.000E+00	 0.000E+00	 0.000E+00	 2.132E+02	 0.000E+00	 2.474E+02	 2.879E-02	 2.474E+02	 2.880E-02	 2.683E+02	 1.270E-01	 2.683E+02	 1.270E-01	 2.713E+02	 2.836E-01	 2.713E+02	 2.836E-01	 2.655E+02	 4.836E-01	 2.655E+02	 4.837E-01	 1.060E+01	 1.808E+07	 1.686E+04	 1.979E+04	-1.012E-01	 2.436E+06	 2.436E+06	 2.436E+06	 1.348E+06	 1.348E+06	 1.348E+06
    0.4000	 1.100E+01	-0.000E+00	 0.000E+00	 1.800E+00	 1.800E+00	 1.800E+00	 2.140E+01	 8.536E+00	 1.981E+01	 8.494E+00	 1.970E+04	-4.408E+03	 1.099E+04	 2.634E+03	 2.229E+01	-2.854E+03	 1.970E+04	-8.112E+03	 8.619E+03	 0.000E+00	 7.048E-01	-1.757E-01	-2.461E-03	 4.415E-01	 5.854E-02	 0.000E+00	 0.000E+00	 0.000E+00	 0.000E+00	 0.000E+00	 0.000E+00	 2.132E+02	 0.000E+00	 2.474E+02	 2.924E-02	 2.474E+02	 2.925E-02	 2.683E+02	 1.289E-01	 2.683E+02	 1.290E-01	 2.713E+02	 2.880E-01	 2.713E+02	 2.880E-01	 2.654E+02	 4.911E-01	 2.654E+02	 4.912E-01	 1.060E+01	 1.813E+07	 1.685E+04	 1.979E+04	-9.746E-02	 2.436E+06	 2.436E+06	 2.436E+06	 1.348E+06	 1.348E+06	 1.348E+06
    0.4100	 1.100E+01	-0.000E+00	 0.000E+00	 1.820E+00	 1.820E+00	 1.820E+00	 2.191E+01	 8.536E+00	 2.032E+01	 8.491E+00	 1.975E+04	-4.353E+03	 1.074E+04	 2.624E+03	 2.505E+01	-2.859E+03	 1.975E+04	-8.048E+03	 8.343E+03	 0.000E+00	 6.559E-01	-1.632E-01	-2.550E-03	 3.763E-01	 5.002E-02	 0.000E+00	 0.000E+00	 0.000E+00	 0.000E+00	 0.000E+00	 0.000E+00	 2.132E+02	 0.000E+00	 2.474E+02	 2.966E-02	 2.474E+02	 2.967E-02	 2.683E+02	 1.308E-01	 2.683E+02	 1.308E-01	 2.712E+02	 2.921E-01	 2.712E+02	 2.921E-01	 2.653E+02	 4.981E-01	 2.653E+02	 4.982E-01	 1.059E+01	 1.818E+07	 1.685E+04	 1.979E+04	-9.375E-02	 2.435E+06	 2.436E+06	 2.436E+06	 1.348E+06	 1.348E+06	 1.348E+06