
Predictions were generated on 29-Oct-2024 at 09:58:26 using OpenFAST, compiled as a 64-bit application using double precision at commit -128-NOTFOUND
 linked with  NWTC Subroutine Library; ElastoDyn; InflowWind; AeroDyn; ServoDyn; HydroDyn; MoorDyn (v2.0.0, 2023-09-18)

Description from the FAST input file: IEA 15 MW offshore reference model monopile configuration

Time	Wind1VelX	Wind1VelY	Wind1VelZ	BldPitch1	BldPitch2	BldPitch3	Azimuth	RotSpeed	RotAccel	LSSGagPxa	GenSpeed	GenAccel	HSShftTq	LSSGagMya	LSSGagMza	LSShftFxs	LSShftFys	LSShftFzs	LSShftMxs	LSSTipMys	LSSTipMzs	NacYaw	YawBrTAxp	YawBrTAyp	YawBrTAzp	IPDefl1	OoPDefl1	PtfmHeave	PtfmPitch	PtfmRoll	PtfmSurge	PtfmSway	PtfmYaw	TwN1Fdx	TwN1Fdy	TwN2Fdx	TwN2Fdy	TwN3Fdx	TwN3Fdy	TwN4Fdx	TwN4Fdy	TwN5Fdx	TwN5Fdy	TwN6Fdx	TwN6Fdy	TwN7Fdx	TwN7Fdy	TwN8Fdx	TwN8Fdy	TwN9Fdx	TwN9Fdy	RtVAvgxh	RtAeroMxh	GenPwr	GenTq	Wave1Elev	FAIRTEN1	FAIRTEN2	FAIRTEN3	ANCHTEN1	ANCHTEN2	ANCHTEN3
(s)	(m/s)	(m/s)	(m/s)	(deg)	(deg)	(deg)	(deg)	(rpm)	(deg/s^2)	(deg)	(rpm)	(deg/s^2)	(kN-m)	(kN-m)	(kN-m)	(kN)	(kN)	(kN)	(kN-m)	(kN-m)	(kN-m)	(deg)	(m/s^2)	(m/s^2)	(m/s^2)	(m)	(m)	(m)	(deg)	(deg)	(m)	(m)	(deg)	(N/m)	(N/m)	(N/m)	(N/m)	(N/m)	(N/m)	(N/m)	(N/m)	(N/m)	(N/m)	(N/m)	(N/m)	(N/m)	(N/m)	(N/m)	(N/m)	(N/m)	(N/m)	(m/s)	(N-m)	(kW)	(kN-m)	(m)	(N)	(N)	(N)	(N)	(N)	(N)
    0.0000	 1.100E+01	-0.000E+00	 0.000E+00	 1.000E+00	 1.000E+00	 1.000E+00	 0.000E+00	 7.550E+00	 2.855E+01	 0.000E+00	 7.550E+00	-6.175E+02	 4.820E-10	-1.721E+02	 4.460E+03	 2.030E+03	 7.044E+01	-2.502E+03	 4.820E-10	-1.721E+02	 4.460E+03	 0.000E+00	 1.038E+00	-2.860E-01	 0.000E+00	 0.000E+00	 0.000E+00	 0.000E+00	 0.000E+00	 0.000E+00	 0.000E+00	 0.000E+00	 0.000E+00	 2.132E+02	 0.000E+00	 2.477E+02	 0.000E+00	 2.477E+02	 0.000E+00	 2.694E+02	 0.000E+00	 2.694E+02	 0.000E+00	 2.738E+02	 0.000E+00	 2.738E+02	 0.000E+00	 2.698E+02	 0.000E+00	 2.698E+02	 0.000E+00	 1.090E+01	 2.185E+07	 1.498E+04	 1.979E+04	-2.369E-01	 2.439E+06	 2.439E+06	 2.439E+06	 1.353E+06	 1.353E+06	 1.353E+06
